; Líneas que comienzan con ';' son considerados comentarios
title               = NPT 6M03 310.0 K C-rescale POSRES
define              = -DPOSRES  ; última constante NVT (200 kJ/mol/nm2)

; Parameters describing what to do, when to stop and what to save
integrator          = md        ; leap-frog integrator
dt                  = 0.002     ; 2 fs
nsteps              = 50000 ; 100.0 ps
nstxout             = 500
nstvout             = 500
nstenergy           = 500
nstlog              = 500
continuation        = yes
constraint_algorithm = lincs     ; holonomic constraints 
constraints         = h-bonds   ; bonds involving H are constrained
lincs_iter          = 1         ; accuracy of LINCS
lincs_order         = 4         ; also related to accuracy

; Nonbonded settings 
cutoff-scheme       = Verlet    ; Buffered neighbor searching
ns_type             = grid      ; search neighboring grid cells
nstlist             = 10        ; 20 fs, largely irrelevant with Verlet
rcoulomb            = 1.0       ; short-range electrostatic cutoff (in nm)
rvdw                = 1.0       ; short-range van der Waals cutoff (in nm)
DispCorr            = EnerPres  ; account for cut-off vdW scheme

; Electrostatics
coulombtype         = PME       ; Particle Mesh Ewald for long-range electrostatics
pme_order           = 4         ; cubic interpolation
fourierspacing      = 0.16      ; grid spacing for FFT

; Temperature coupling
tcoupl              = V-rescale ; modified Berendsen thermostat
tc-grps             = Protein Non-Protein ; two coupling groups - more accurate
tau_t               = 0.1       0.1    ; time constant, in ps
ref_t               = 310       310    ; reference temperature, one for each group, in K

; Pressure coupling
; C-rescale en equilibración: Parrinello-Rahman desde NVT (caja no equilibrada)
; suele disparar LINCS y matar el job. La producción sí usa PR.
pcoupl              = C-rescale             ; barostato de equilibración
pcoupltype          = isotropic             ; uniform scaling of box vectors
tau_p               = 5.0                   ; time constant, in ps
ref_p               = 1                   ; reference pressure, in bar
compressibility     = 4.5e-5                ; isothermal compressibility of water, bar^-1
refcoord_scaling    = com                   ; absolute position of the center of mass

; Periodic boundary conditions
pbc                 = xyz       ; 3-D PBC

; Velocity generation
gen_vel             = no ; assign velocities from Maxwell distribution
gen_temp            = 310       ; temperature for Maxwell distribution
gen_seed            = -1        ; generate a random seed
