; NVT de continuación (POSRES 800→200): sin regenerar velocidades
title               = NVT 6M03 310.0 K continuation
define              = -DPOSRES  ; restrain protein heavy atoms

integrator          = md
dt                  = 0.002
nsteps              = 50000
nstxout             = 500
nstvout             = 500
nstenergy           = 500
nstlog              = 500
continuation        = yes
constraint_algorithm = lincs
constraints         = h-bonds
lincs_iter          = 1
lincs_order         = 4

cutoff-scheme       = Verlet
ns_type             = grid
nstlist             = 10
rcoulomb            = 1.0
rvdw                = 1.0
DispCorr            = EnerPres

coulombtype         = PME
pme_order           = 4
fourierspacing      = 0.16

tcoupl              = V-rescale
tc-grps             = Protein Non-Protein
tau_t               = 0.1       0.1
ref_t               = 310       310

pcoupl              = no
pbc                 = xyz

gen_vel             = no
gen_temp            = 310
gen_seed            = -1
